# vtk DataFile Version 3.1
zFEM 3D unstructured, nonlinear FEM for structural dyanmics: M. J. Zahr
ASCII

DATASET UNSTRUCTURED_GRID
POINTS 	 2541 	 FLOAT
0.000000	0.000000	0.000000
0.000000	0.000000	0.250000
0.000000	0.000000	0.500000
0.000000	0.000000	0.750000
0.000000	0.000000	1.000000
0.000000	0.000000	1.250000
0.000000	0.000000	1.500000
0.000000	0.000000	1.750000
0.000000	0.000000	2.000000
0.000000	0.000000	2.250000
0.000000	0.000000	2.500000
0.000000	0.000000	2.750000
0.000000	0.000000	3.000000
0.000000	0.000000	3.250000
0.000000	0.000000	3.500000
0.000000	0.000000	3.750000
0.000000	0.000000	4.000000
0.000000	0.000000	4.250000
0.000000	0.000000	4.500000
0.000000	0.000000	4.750000
0.000000	0.000000	5.000000
0.000000	0.100000	0.000000
0.000000	0.100000	0.250000
0.000000	0.100000	0.500000
0.000000	0.100000	0.750000
0.000000	0.100000	1.000000
0.000000	0.100000	1.250000
0.000000	0.100000	1.500000
0.000000	0.100000	1.750000
0.000000	0.100000	2.000000
0.000000	0.100000	2.250000
0.000000	0.100000	2.500000
0.000000	0.100000	2.750000
0.000000	0.100000	3.000000
0.000000	0.100000	3.250000
0.000000	0.100000	3.500000
0.000000	0.100000	3.750000
0.000000	0.100000	4.000000
0.000000	0.100000	4.250000
0.000000	0.100000	4.500000
0.000000	0.100000	4.750000
0.000000	0.100000	5.000000
0.000000	0.200000	0.000000
0.000000	0.200000	0.250000
0.000000	0.200000	0.500000
0.000000	0.200000	0.750000
0.000000	0.200000	1.000000
0.000000	0.200000	1.250000
0.000000	0.200000	1.500000
0.000000	0.200000	1.750000
0.000000	0.200000	2.000000
0.000000	0.200000	2.250000
0.000000	0.200000	2.500000
0.000000	0.200000	2.750000
0.000000	0.200000	3.000000
0.000000	0.200000	3.250000
0.000000	0.200000	3.500000
0.000000	0.200000	3.750000
0.000000	0.200000	4.000000
0.000000	0.200000	4.250000
0.000000	0.200000	4.500000
0.000000	0.200000	4.750000
0.000000	0.200000	5.000000
0.000000	0.300000	0.000000
0.000000	0.300000	0.250000
0.000000	0.300000	0.500000
0.000000	0.300000	0.750000
0.000000	0.300000	1.000000
0.000000	0.300000	1.250000
0.000000	0.300000	1.500000
0.000000	0.300000	1.750000
0.000000	0.300000	2.000000
0.000000	0.300000	2.250000
0.000000	0.300000	2.500000
0.000000	0.300000	2.750000
0.000000	0.300000	3.000000
0.000000	0.300000	3.250000
0.000000	0.300000	3.500000
0.000000	0.300000	3.750000
0.000000	0.300000	4.000000
0.000000	0.300000	4.250000
0.000000	0.300000	4.500000
0.000000	0.300000	4.750000
0.000000	0.300000	5.000000
0.000000	0.400000	0.000000
0.000000	0.400000	0.250000
0.000000	0.400000	0.500000
0.000000	0.400000	0.750000
0.000000	0.400000	1.000000
0.000000	0.400000	1.250000
0.000000	0.400000	1.500000
0.000000	0.400000	1.750000
0.000000	0.400000	2.000000
0.000000	0.400000	2.250000
0.000000	0.400000	2.500000
0.000000	0.400000	2.750000
0.000000	0.400000	3.000000
0.000000	0.400000	3.250000
0.000000	0.400000	3.500000
0.000000	0.400000	3.750000
0.000000	0.400000	4.000000
0.000000	0.400000	4.250000
0.000000	0.400000	4.500000
0.000000	0.400000	4.750000
0.000000	0.400000	5.000000
0.000000	0.500000	0.000000
0.000000	0.500000	0.250000
0.000000	0.500000	0.500000
0.000000	0.500000	0.750000
0.000000	0.500000	1.000000
0.000000	0.500000	1.250000
0.000000	0.500000	1.500000
0.000000	0.500000	1.750000
0.000000	0.500000	2.000000
0.000000	0.500000	2.250000
0.000000	0.500000	2.500000
0.000000	0.500000	2.750000
0.000000	0.500000	3.000000
0.000000	0.500000	3.250000
0.000000	0.500000	3.500000
0.000000	0.500000	3.750000
0.000000	0.500000	4.000000
0.000000	0.500000	4.250000
0.000000	0.500000	4.500000
0.000000	0.500000	4.750000
0.000000	0.500000	5.000000
0.000000	0.600000	0.000000
0.000000	0.600000	0.250000
0.000000	0.600000	0.500000
0.000000	0.600000	0.750000
0.000000	0.600000	1.000000
0.000000	0.600000	1.250000
0.000000	0.600000	1.500000
0.000000	0.600000	1.750000
0.000000	0.600000	2.000000
0.000000	0.600000	2.250000
0.000000	0.600000	2.500000
0.000000	0.600000	2.750000
0.000000	0.600000	3.000000
0.000000	0.600000	3.250000
0.000000	0.600000	3.500000
0.000000	0.600000	3.750000
0.000000	0.600000	4.000000
0.000000	0.600000	4.250000
0.000000	0.600000	4.500000
0.000000	0.600000	4.750000
0.000000	0.600000	5.000000
0.000000	0.700000	0.000000
0.000000	0.700000	0.250000
0.000000	0.700000	0.500000
0.000000	0.700000	0.750000
0.000000	0.700000	1.000000
0.000000	0.700000	1.250000
0.000000	0.700000	1.500000
0.000000	0.700000	1.750000
0.000000	0.700000	2.000000
0.000000	0.700000	2.250000
0.000000	0.700000	2.500000
0.000000	0.700000	2.750000
0.000000	0.700000	3.000000
0.000000	0.700000	3.250000
0.000000	0.700000	3.500000
0.000000	0.700000	3.750000
0.000000	0.700000	4.000000
0.000000	0.700000	4.250000
0.000000	0.700000	4.500000
0.000000	0.700000	4.750000
0.000000	0.700000	5.000000
0.000000	0.800000	0.000000
0.000000	0.800000	0.250000
0.000000	0.800000	0.500000
0.000000	0.800000	0.750000
0.000000	0.800000	1.000000
0.000000	0.800000	1.250000
0.000000	0.800000	1.500000
0.000000	0.800000	1.750000
0.000000	0.800000	2.000000
0.000000	0.800000	2.250000
0.000000	0.800000	2.500000
0.000000	0.800000	2.750000
0.000000	0.800000	3.000000
0.000000	0.800000	3.250000
0.000000	0.800000	3.500000
0.000000	0.800000	3.750000
0.000000	0.800000	4.000000
0.000000	0.800000	4.250000
0.000000	0.800000	4.500000
0.000000	0.800000	4.750000
0.000000	0.800000	5.000000
0.000000	0.900000	0.000000
0.000000	0.900000	0.250000
0.000000	0.900000	0.500000
0.000000	0.900000	0.750000
0.000000	0.900000	1.000000
0.000000	0.900000	1.250000
0.000000	0.900000	1.500000
0.000000	0.900000	1.750000
0.000000	0.900000	2.000000
0.000000	0.900000	2.250000
0.000000	0.900000	2.500000
0.000000	0.900000	2.750000
0.000000	0.900000	3.000000
0.000000	0.900000	3.250000
0.000000	0.900000	3.500000
0.000000	0.900000	3.750000
0.000000	0.900000	4.000000
0.000000	0.900000	4.250000
0.000000	0.900000	4.500000
0.000000	0.900000	4.750000
0.000000	0.900000	5.000000
0.000000	1.000000	0.000000
0.000000	1.000000	0.250000
0.000000	1.000000	0.500000
0.000000	1.000000	0.750000
0.000000	1.000000	1.000000
0.000000	1.000000	1.250000
0.000000	1.000000	1.500000
0.000000	1.000000	1.750000
0.000000	1.000000	2.000000
0.000000	1.000000	2.250000
0.000000	1.000000	2.500000
0.000000	1.000000	2.750000
0.000000	1.000000	3.000000
0.000000	1.000000	3.250000
0.000000	1.000000	3.500000
0.000000	1.000000	3.750000
0.000000	1.000000	4.000000
0.000000	1.000000	4.250000
0.000000	1.000000	4.500000
0.000000	1.000000	4.750000
0.000000	1.000000	5.000000
0.100000	0.000000	0.000000
0.100000	0.000000	0.250000
0.100000	0.000000	0.500000
0.100000	0.000000	0.750000
0.100000	0.000000	1.000000
0.100000	0.000000	1.250000
0.100000	0.000000	1.500000
0.100000	0.000000	1.750000
0.100000	0.000000	2.000000
0.100000	0.000000	2.250000
0.100000	0.000000	2.500000
0.100000	0.000000	2.750000
0.100000	0.000000	3.000000
0.100000	0.000000	3.250000
0.100000	0.000000	3.500000
0.100000	0.000000	3.750000
0.100000	0.000000	4.000000
0.100000	0.000000	4.250000
0.100000	0.000000	4.500000
0.100000	0.000000	4.750000
0.100000	0.000000	5.000000
0.100000	0.100000	0.000000
0.100000	0.100000	0.250000
0.100000	0.100000	0.500000
0.100000	0.100000	0.750000
0.100000	0.100000	1.000000
0.100000	0.100000	1.250000
0.100000	0.100000	1.500000
0.100000	0.100000	1.750000
0.100000	0.100000	2.000000
0.100000	0.100000	2.250000
0.100000	0.100000	2.500000
0.100000	0.100000	2.750000
0.100000	0.100000	3.000000
0.100000	0.100000	3.250000
0.100000	0.100000	3.500000
0.100000	0.100000	3.750000
0.100000	0.100000	4.000000
0.100000	0.100000	4.250000
0.100000	0.100000	4.500000
0.100000	0.100000	4.750000
0.100000	0.100000	5.000000
0.100000	0.200000	0.000000
0.100000	0.200000	0.250000
0.100000	0.200000	0.500000
0.100000	0.200000	0.750000
0.100000	0.200000	1.000000
0.100000	0.200000	1.250000
0.100000	0.200000	1.500000
0.100000	0.200000	1.750000
0.100000	0.200000	2.000000
0.100000	0.200000	2.250000
0.100000	0.200000	2.500000
0.100000	0.200000	2.750000
0.100000	0.200000	3.000000
0.100000	0.200000	3.250000
0.100000	0.200000	3.500000
0.100000	0.200000	3.750000
0.100000	0.200000	4.000000
0.100000	0.200000	4.250000
0.100000	0.200000	4.500000
0.100000	0.200000	4.750000
0.100000	0.200000	5.000000
0.100000	0.300000	0.000000
0.100000	0.300000	0.250000
0.100000	0.300000	0.500000
0.100000	0.300000	0.750000
0.100000	0.300000	1.000000
0.100000	0.300000	1.250000
0.100000	0.300000	1.500000
0.100000	0.300000	1.750000
0.100000	0.300000	2.000000
0.100000	0.300000	2.250000
0.100000	0.300000	2.500000
0.100000	0.300000	2.750000
0.100000	0.300000	3.000000
0.100000	0.300000	3.250000
0.100000	0.300000	3.500000
0.100000	0.300000	3.750000
0.100000	0.300000	4.000000
0.100000	0.300000	4.250000
0.100000	0.300000	4.500000
0.100000	0.300000	4.750000
0.100000	0.300000	5.000000
0.100000	0.400000	0.000000
0.100000	0.400000	0.250000
0.100000	0.400000	0.500000
0.100000	0.400000	0.750000
0.100000	0.400000	1.000000
0.100000	0.400000	1.250000
0.100000	0.400000	1.500000
0.100000	0.400000	1.750000
0.100000	0.400000	2.000000
0.100000	0.400000	2.250000
0.100000	0.400000	2.500000
0.100000	0.400000	2.750000
0.100000	0.400000	3.000000
0.100000	0.400000	3.250000
0.100000	0.400000	3.500000
0.100000	0.400000	3.750000
0.100000	0.400000	4.000000
0.100000	0.400000	4.250000
0.100000	0.400000	4.500000
0.100000	0.400000	4.750000
0.100000	0.400000	5.000000
0.100000	0.500000	0.000000
0.100000	0.500000	0.250000
0.100000	0.500000	0.500000
0.100000	0.500000	0.750000
0.100000	0.500000	1.000000
0.100000	0.500000	1.250000
0.100000	0.500000	1.500000
0.100000	0.500000	1.750000
0.100000	0.500000	2.000000
0.100000	0.500000	2.250000
0.100000	0.500000	2.500000
0.100000	0.500000	2.750000
0.100000	0.500000	3.000000
0.100000	0.500000	3.250000
0.100000	0.500000	3.500000
0.100000	0.500000	3.750000
0.100000	0.500000	4.000000
0.100000	0.500000	4.250000
0.100000	0.500000	4.500000
0.100000	0.500000	4.750000
0.100000	0.500000	5.000000
0.100000	0.600000	0.000000
0.100000	0.600000	0.250000
0.100000	0.600000	0.500000
0.100000	0.600000	0.750000
0.100000	0.600000	1.000000
0.100000	0.600000	1.250000
0.100000	0.600000	1.500000
[...]
POINT_DATA 2541
VECTORS DISP FLOAT
  0.0006206958982311	 -0.0005284905346449	  0.0007032201954881
  0.0023297873406995	 -0.0013664900111479	  0.0013299804098673
  0.0038955293244749	 -0.0019853868630538	  0.0019437828269764
  0.0055453117467089	 -0.0021673718221776	  0.0028993355425725
  0.0069577755646398	 -0.0015402019143392	  0.0037369112061816
  0.0084137265766589	 -0.0004213850460035	  0.0046311487526837
  0.0097207352525954	  0.0013777490518018	  0.0054897629235929
  0.0110135468977157	  0.0037298874900020	  0.0063557860499373
  0.0121941868525688	  0.0067139604065251	  0.0072096575131735
  0.0133290757710860	  0.0102782448925201	  0.0080477152141678
  0.0143719974475268	  0.0144438883926254	  0.0088836408908478
  0.0153493751853199	  0.0192042668904994	  0.0096855096897477
  0.0162485846256124	  0.0245373535329738	  0.0104909680984135
  0.0170620474632740	  0.0304796337353830	  0.0112353514047516
  0.0178081638836538	  0.0369408150705180	  0.0119913414294989
  0.0184381826506396	  0.0440265298245225	  0.0126034373443413
  0.0191192446878620	  0.0511849518532227	  0.0135640176556586
  0.0190688084826702	  0.0597472434442298	  0.0140200986592857
  0.0186786715164070	  0.0688598102630695	  0.0143349746011437
  0.0178356678019416	  0.0787553800016088	  0.0144325237157126
  0.0170659354964842	  0.0888380607866694	  0.0147051538617341
  0.0003451385963964	 -0.0006841038014871	  0.0010619521160606
  0.0017374183735585	 -0.0013015216078848	  0.0012218393315038
  0.0031338016235680	 -0.0021726526429473	  0.0019241353845620
  0.0042578767081184	 -0.0021946229091317	  0.0024945487851299
  0.0054528442056383	 -0.0016826791686949	  0.0031549168861743
  0.0064722379452340	 -0.0004987251677492	  0.0037752347154574
  0.0074978992434209	  0.0012424708683289	  0.0044111797455904
  0.0083992453557132	  0.0036151312147880	  0.0050340485812416
  0.0092664105983734	  0.0065676691622789	  0.0056470334408883
  0.0100343129886177	  0.0101262990068572	  0.0062586014501819
  0.0107451589612594	  0.0142761166173137	  0.0068433489869121
  0.0113719904908290	  0.0190103292249318	  0.0074333005348433
  0.0119243188211971	  0.0243430079300909	  0.0079776085576318
  0.0124043189616753	  0.0302347299833704	  0.0085330254787992
  0.0127836266728497	  0.0367261729448267	  0.0090072186492482
  0.0131091247831365	  0.0437031625411390	  0.0095350975382055
  0.0132035900564148	  0.0510333366631944	  0.0098942650370341
  0.0129836248578044	  0.0594856175679778	  0.0101357227991542
  0.0123341249355987	  0.0686916944139066	  0.0101563199550717
  0.0114682160937109	  0.0784579045445278	  0.0101512178037011
  0.0102979050568757	  0.0887290638081586	  0.0099460319491957
  0.0000128934503524	 -0.0005313360294580	  0.0007589064110064
  0.0013729215611922	 -0.0014457238876770	  0.0010340106408119
  0.0021836149771181	 -0.0022035772330644	  0.0014222065274330
  0.0031111566380622	 -0.0022879859438909	  0.0018369432792254
  0.0038519579915090	 -0.0017361440222034	  0.0022103292989018
  0.0046033260878770	 -0.0005964681779981	  0.0026126623249722
  0.0052272731402605	  0.0011593942065161	  0.0030009798479078
  0.0058230566540975	  0.0035041496562497	  0.0033852034581371
  0.0063161516146355	  0.0064517260622931	  0.0037681724082377
  0.0067579863452471	  0.0099928484036764	  0.0041306494887591
  0.0071117508881056	  0.0141223847537744	  0.0044983677597201
  0.0073986329436820	  0.0188470815069152	  0.0048315982649874
  0.0076076318943038	  0.0241452946816121	  0.0051743424948778
  0.0077345096524862	  0.0300374325405390	  0.0054637984105253
  0.0077893354288506	  0.0364765166493243	  0.0057703157962058
  0.0077268916505117	  0.0434816901994025	  0.0059884431108645
  0.0075074994994754	  0.0508449793887850	  0.0061489556712448
  0.0069811822061612	  0.0593179854457458	  0.0061185997146499
  0.0061905636073562	  0.0684776375602167	  0.0060112703460000
  0.0051271295103788	  0.0783004741160854	  0.0057914894390294
  0.0039579843117430	  0.0885222596092587	  0.0055523173179241
  0.0000583900747325	 -0.0005408116605960	  0.0004742245598573
  0.0007851786181827	 -0.0014947443907876	  0.0005938606594191
  0.0013805699299107	 -0.0022632572854706	  0.0008120072722074
  0.0018628970349935	 -0.0023196755516573	  0.0009548044062431
  0.0023297225490883	 -0.0017908735435967	  0.0011116629029168
  0.0026816423368335	 -0.0006506112155252	  0.0012626030916377
  0.0030000164233317	  0.0010880730469006	  0.0014137391759484
  0.0032201173386336	  0.0034231550818317	  0.0015650359900132
  0.0033891389498721	  0.0063573179075812	  0.0017004248731551
  0.0034704916003329	  0.0098789088786094	  0.0018415119223046
  0.0034882569907623	  0.0139975232962297	  0.0019558046197399
  0.0034255358784273	  0.0186942239716331	  0.0020785168240844
  0.0032893292133936	  0.0239829689007628	  0.0021634385266057
  0.0030770877407268	  0.0298402802659001	  0.0022583702436728
  0.0027789013513883	  0.0362700169149180	  0.0023032069072843
  0.0023864151178726	  0.0432667395114931	  0.0023330049612001
  0.0018346165570993	  0.0506684502901821	  0.0022459410801161
  0.0010756370341926	  0.0591270590435350	  0.0020796921962757
  0.0000679355729000	  0.0683004053571431	  0.0017988957098234
 -0.0010987522170778	  0.0781268065647796	  0.0015080354673503
 -0.0022965218618164	  0.0882927040792052	  0.0012343308793033
  0.0000026886644728	 -0.0005539911444388	  0.0001224429868643
  0.0002881692748137	 -0.0015252494825156	  0.0001206796864647
  0.0005007709423313	 -0.0022826771022366	  0.0000701299074467
  0.0006784942013839	 -0.0023345698189768	 -0.0000135293394807
  0.0007634692362115	 -0.0018142015567167	 -0.0001015078610421
  0.0007990168734927	 -0.0006821782670673	 -0.0001903749469772
  0.0007484210986458	  0.0010415922141016	 -0.0002723291130325
  0.0006401999857248	  0.0033693331658710	 -0.0003691950325580
  0.0004503269786344	  0.0062822328190022	 -0.0004575562979195
  0.0001953417004392	  0.0097957127006400	 -0.0005685553787800
 -0.0001384471362543	  0.0138875339571603	 -0.0006705144161432
 -0.0005433041512266	  0.0185743059833579	 -0.0008014573601235
 -0.0010251739305200	  0.0238322585485677	 -0.0009240387325578
 -0.0015833315902252	  0.0296757453503617	 -0.0010816467760700
 -0.0022200685422228	  0.0360762867158402	 -0.0012339957403223
 -0.0029516861982943	  0.0430747172895114	 -0.0014446640714784
 -0.0037971580006137	  0.0504767163560446	 -0.0016844012225776
 -0.0048101367483023	  0.0589362668985881	 -0.0020193085673326
 -0.0059957076695311	  0.0681162346632034	 -0.0023877363894734
 -0.0072860071237987	  0.0779474877689897	 -0.0027430734509526
 -0.0084675216164652	  0.0880279123366280	 -0.0029991626522283
 -0.0000215613775018	 -0.0005572461172283	 -0.0002364347134266
 -0.0002407172767528	 -0.0015172829162035	 -0.0003917684465551
 -0.0003475016980401	 -0.0022679019817004	 -0.0007117227505594
 -0.0005283618151577	 -0.0023241380898044	 -0.0010337233506368
 -0.0007784961930737	 -0.0018083793935054	 -0.0013684912872322
 -0.0010974314496748	 -0.0006929579986138	 -0.0016837946132622
 -0.0014871036240250	  0.0010275665967797	 -0.0020190511501806
 -0.0019469261831874	  0.0033330841059589	 -0.0023382723555382
 -0.0024784259516596	  0.0062414249862559	 -0.0026804806976677
 -0.0030823890686000	  0.0097279489850413	 -0.0030101202233943
 -0.0037595151984262	  0.0138123812502652	 -0.0033646558854192
 -0.0045113713534863	  0.0184688738631853	 -0.0037100277799209
 -0.0053375253734899	  0.0237151995973783	 -0.0040820647803750
 -0.0062404389679078	  0.0295266081233652	 -0.0044481455793587
 -0.0072184553508913	  0.0359113767268006	 -0.0048430963635347
 -0.0082784931806618	  0.0428869990084983	 -0.0052376341603577
 -0.0094195051282851	  0.0502800579922550	 -0.0056656374294295
 -0.0106730038317418	  0.0587331769338731	 -0.0061067764225911
 -0.0120355454081339	  0.0679162601804226	 -0.0065756530278697
 -0.0134236518692075	  0.0777442355339488	 -0.0069327087481723
 -0.0146182007778858	  0.0877431257151582	 -0.0071973592845358
 -0.0000427297693867	 -0.0005425407583884	 -0.0005892324825220
 -0.0007690528760041	 -0.0014705425059275	 -0.0009182708428712
 -0.0011898358619495	 -0.0022164131359208	 -0.0014834111996986
 -0.0017333114372764	 -0.0022832993071782	 -0.0020742186616915
 -0.0023162918052685	 -0.0017824350743808	 -0.0026174998020123
 -0.0029916023019179	 -0.0006691651790823	 -0.0031975794776245
 -0.0037194001337562	  0.0010307427535141	 -0.0037476495739673
 -0.0045315340959926	  0.0033336531501013	 -0.0043272775838593
 -0.0054046166164593	  0.0062160549253389	 -0.0048862824264093
 -0.0063574728384121	  0.0096976411232960	 -0.0054708375052189
 -0.0073787021090830	  0.0137521149304725	 -0.0060426450863413
 -0.0084765665253473	  0.0184001355478139	 -0.0066370634797260
 -0.0096488213479873	  0.0236137683054400	 -0.0072247791142686
 -0.0108943454217600	  0.0294119801824079	 -0.0078328025309596
 -0.0122167404071338	  0.0357615920824046	 -0.0084376197212746
 -0.0136011203903879	  0.0427130812001972	 -0.0090489895340873
 -0.0150414641082372	  0.0500725931605876	 -0.0096295491937204
 -0.0165285713276421	  0.0585143452232501	 -0.0102073134444450
 -0.0180646633158115	  0.0676914151955627	 -0.0107224575989551
 -0.0195341175661462	  0.0774996049638195	 -0.0111153859870601
 -0.0207729035398700	  0.0874454833466105	 -0.0113415192182402
 -0.0000986502835072	 -0.0005203387338502	 -0.0009540861660062
 -0.0012543003310885	 -0.0013786344897675	 -0.0013880887306136
 -0.0020597553136814	 -0.0021294541369444	 -0.0022602013799693
 -0.0029064713830736	 -0.0022199114671288	 -0.0030269755935822
 -0.0038740751654871	 -0.0017237933475430	 -0.0038552252273797
 -0.0048649764251075	 -0.0006257511638160	 -0.0046324802602390
 -0.0059629287976545	  0.0010704432293234	 -0.0054566176781944
 -0.0071032824960286	  0.0033515109334268	 -0.0062455409875622
 -0.0083358423743965	  0.0062290864233739	 -0.0070661584749471
 -0.0096255597269324	  0.0096831827716074	 -0.0078665268093773
 -0.0109982325826956	  0.0137311513690879	 -0.0086901691115948
 -0.0124395506114262	  0.0183466186845942	 -0.0095038473003224
 -0.0139564201339232	  0.0235512967897738	 -0.0103330803862727
 -0.0155504085169971	  0.0293134313993702	 -0.0111610274658370
 -0.0172089771612883	  0.0356472800327616	 -0.0119963582243640
 -0.0189349350675367	  0.0425417616137842	 -0.0128156095550485
 -0.0206628682718240	  0.0498642138810384	 -0.0135772093273522
 -0.0224040446836850	  0.0582718563673923	 -0.0142740036771671
 -0.0240885821685169	  0.0674387947051156	 -0.0148743471264306
 -0.0256629570768303	  0.0772010299007951	 -0.0152661168881072
 -0.0269405720346963	  0.0871363163257168	 -0.0155149150837174
 -0.0000446061171171	 -0.0005024501939283	 -0.0012312308870587
 -0.0018261838843586	 -0.0012517933517441	 -0.0018953067370107
 -0.0028430998600710	 -0.0020112770741159	 -0.0028564391367725
 -0.0041390829326573	 -0.0021330901753995	 -0.0039463436473727
 -0.0053812012187988	 -0.0016379639738957	 -0.0049314876366166
 -0.0067726201425390	 -0.0005514160757017	 -0.0060094712379708
 -0.0081764027885425	  0.0011336610681193	 -0.0070268328625865
 -0.0096934374835444	  0.0034046159075128	 -0.0080898949444921
 -0.0112505077142658	  0.0062620374212260	 -0.0091200129326746
 -0.0129013612791797	  0.0097078853033875	 -0.0101787921898368
 -0.0146109793208898	  0.0137268115529859	 -0.0112206291025398
 -0.0164018859573423	  0.0183355977555476	 -0.0122795936596195
 -0.0182656704925661	  0.0235025259861856	 -0.0133333569570107
 -0.0201979420771298	  0.0292593914392726	 -0.0143892283382892
 -0.0222126001907056	  0.0355473576079928	 -0.0154558212603318
 -0.0242642400166277	  0.0424055781623102	 -0.0164943251937931
 -0.0263248671957220	  0.0496320062460659	 -0.0174690348435563
 -0.0282889150321409	  0.0580275583583631	 -0.0183087287796341
 -0.0301668551594892	  0.0671415291635362	 -0.0190067603440218
 -0.0318090437172500	  0.0768654297714616	 -0.0194532284675410
 -0.0331971165518544	  0.0867871147407384	 -0.0197120686139419
 -0.0003512710615782	 -0.0006403444518949	 -0.0017553368118989
 -0.0021646512529253	 -0.0010419037018169	 -0.0020485271764483
 -0.0037675949902172	 -0.0019108080777799	 -0.0034350801865707
 -0.0052666612475000	 -0.0019960821480610	 -0.0045663237922949
 -0.0069613373048343	 -0.0015403035954500	 -0.0059105002983748
 -0.0086228278947662	 -0.0004369622007353	 -0.0071496539148803
 -0.0104290073742213	  0.0012203856041260	 -0.0084628692883412
 -0.0122524081213440	  0.0034882254318966	 -0.0097229074684224
 -0.0141846306428334	  0.0063284878056228	 -0.0110224468960341
 -0.0161624278637408	  0.0097550469107114	 -0.0122938570451958
 -0.0182298914158632	  0.0137646515133819	 -0.0135885590499332
 -0.0203620252730399	  0.0183392989243377	 -0.0148701950040773
 -0.0225693480299773	  0.0235049411214211	 -0.0161594601765264
 -0.0248565566449724	  0.0292099113854602	 -0.0174494043488473
 -0.0271956054506432	  0.0355114231376947	 -0.0187162917747727
 -0.0296371866746587	  0.0422768640737516	 -0.0200380706558142
 -0.0320016866562918	  0.0494222646993372	 -0.0212335091449953
 -0.0342727231126004	  0.0577368799279563	 -0.0223041883847743
 -0.0362672225063064	  0.0668634037633575	 -0.0231016608836202
 -0.0380869566606093	  0.0764613367093062	 -0.0236976599437661
 -0.0395260598209543	  0.0864144239895285	 -0.0239899553783743
 -0.0006370424768051	 -0.0004741198122158	 -0.0012860463571011
 -0.0026997024404536	 -0.0010474983736969	 -0.0023791018940505
 -0.0045192834509215	 -0.0016711262892367	 -0.0033667944549237
 -0.0065245069280915	 -0.0019099437291090	 -0.0050203584043957
 -0.0084458741534886	 -0.0013591337303603	 -0.0064558420599839
 -0.0105420666267120	 -0.0003285192387045	 -0.0080310197850271
 -0.0126319164961758	  0.0013602672834973	 -0.0095186193160256
 -0.0148476171773485	  0.0035911424127180	 -0.0110651882831165
 -0.0170946112769065	  0.0064304768087702	 -0.0125671985850085
 -0.0194405076268089	  0.0098386155050552	 -0.0141023791106434
 -0.0218413778953020	  0.0138249085703018	 -0.0156134837684109
 -0.0243249355932294	  0.0183949027504631	 -0.0171418152087875
 -0.0268805807287312	  0.0235144046553849	 -0.0186592524790101
 -0.0295018682998116	  0.0292340927740356	 -0.0201714726756634
 -0.0322089614277666	  0.0354500569064911	 -0.0216896453009994
 -0.0349563683769935	  0.0422910793030904	 -0.0231278221859366
 -0.0379099565498984	  0.0491557606649443	 -0.0249095660500802
 -0.0403453567969691	  0.0575344989225541	 -0.0262125334819744
 -0.0425915365349559	  0.0664947448389574	 -0.0272480496869300
 -0.0444237029408180	  0.0761857940982273	 -0.0278960920226128
 -0.0462892004702549	  0.0858636612687384	 -0.0286388961313572
  0.0007070549636346	 -0.0002780170493811	  0.0005143058077424
  0.0021066784201354	 -0.0007181038504974	  0.0007024826977111
  0.0038941272624038	 -0.0012633116696239	  0.0016842669396157
  0.0053667800632739	 -0.0008869930207656	  0.0025127392801522
  0.0068933663392503	 -0.0000502003686657	  0.0034555742628923
  0.0082606735242765	  0.0015025747352789	  0.0043283477824888
  0.0096198895207461	  0.0035884845401324	  0.0052302127467412
  0.0108626237806698	  0.0063241134927533	  0.0061061536153758
  0.0120639373627859	  0.0096303432873571	  0.0069785067000186
  0.0131682260252821	  0.0135514813265224	  0.0078407794623993
  0.0142128076854907	  0.0180607978016331	  0.0086790994263319
  0.0151714595739243	  0.0231582016813037	  0.0095154860489608
  0.0160581126037144	  0.0288555410929151	  0.0103081642802478
  0.0168639954961356	  0.0351087472130651	  0.0111038463584318
  0.0175835668025103	  0.0419750730146958	  0.0118205204985955
  0.0182219257167603	  0.0492914277715948	  0.0125508342995148
  0.0187565668054086	  0.0572467842358816	  0.0133640261562262
  0.0187850780015973	  0.0659083554290691	  0.0139978358514211
  0.0183444057377960	  0.0753383225341248	  0.0143225572815892
  0.0175808694594470	  0.0851761415161793	  0.0145625286963428
  0.0166120229026037	  0.0958590924841849	  0.0146790469184006
  0.0000000000000000	  0.0000000000000000	  0.0000000000000000
  0.0018122196319659	 -0.0009589095795928	  0.0009684710072336
  0.0029721206512779	 -0.0012643557745840	  0.0014938664118228
  0.0042386313955060	 -0.0010409640801753	  0.0021950835782351
  0.0053240199681848	 -0.0001128239846682	  0.0028256369693832
  0.0064122167257543	  0.0013669630277140	  0.0034976407911419
  0.0073774092516110	  0.0034877996543928	  0.0041399327080538
  0.0083092918815100	  0.0061836703016218	  0.0047859386452586
  0.0091397493218204	  0.0094945937621515	  0.0054213951636972
  0.0099163419309811	  0.0133936403414091	  0.0060395127895469
  0.0106036129380249	  0.0178868307454871	  0.0066564514149494
  0.0112243806732736	  0.0229751571030684	  0.0072390208816194
  0.0117625462391534	  0.0286369421768053	  0.0078264283735047
  0.0122239759394959	  0.0348977262215754	  0.0083578290271820
  0.0126004170830658	  0.0417025467029871	  0.0088994558075131
  0.0128818877650137	  0.0490547196341490	  0.0093758937752968
  0.0129723105311214	  0.0569113473755253	  0.0098715550325737
  0.0127206976600497	  0.0656511631176632	  0.0101503076081296
  0.0121109497106904	  0.0749944681945229	  0.0103017703044993
  0.0111963284649628	  0.0849271102894225	  0.0102768607749582
  0.0100667315090531	  0.0954606180909364	  0.0101818442030896
  0.0000000000000000	  0.0000000000000000	  0.0000000000000000
  0.0012533962032700	 -0.0010433083735458	  0.0007143838212765
  0.0021954810931292	 -0.0013522980154794	  0.0011826199996201
  0.0030154410736311	 -0.0010904985237147	  0.0015658237383893
  0.0038259711304590	 -0.0002049795272050	  0.0020002964850578
  0.0045155713021001	  0.0012938162604024	  0.0024057813242000
  0.0051741086091077	  0.0033852324012087	  0.0028216700946433
  0.0057310471595769	  0.0060819608742844	  0.0032268275424368
  0.0062370587347471	  0.0093734426548960	  0.0036203063494148
  0.0066528288603144	  0.0132583785610489	  0.0040128565049381
  0.0070051751416219	  0.0177392435333532	  0.0043787352336280
  0.0072739214415120	  0.0228005333590069	  0.0047492049184250
  0.0074706587987867	  0.0284566047233785	  0.0050781373428681
  0.0075860009737975	  0.0346779012172055	  0.0054153421630616
  0.0076178870822675	  0.0414823881222864	  0.0056960056507248
  0.0075471749230276	  0.0487996810083024	  0.0059855690614379
  0.0072855721383539	  0.0566807442597194	  0.0061536507078680
  0.0067735729710048	  0.0653764030293385	  0.0062370955052425
  0.0059589586270716	  0.0747539581299334	  0.0061564228807062
  0.0049056436135548	  0.0846573140268969	  0.0059843300264242
  0.0037220726832129	  0.0951481652976908	  0.0057564773001605
  0.0000000000000000	  0.0000000000000000	  0.0000000000000000
  0.0007837877920327	 -0.0011187826123903	  0.0004240385338060
  0.0013355624701486	 -0.0013986656162339	  0.0006318496767544
  0.0018606271222555	 -0.0011347027386615	  0.0008203091638213
  0.0022797828204936	 -0.0002540030736444	  0.0009873434043656
  0.0026601040927649	  0.0012329679242256	  0.0011666030626785
  0.0029445501096013	  0.0033149391155809	  0.0013393071703228
  0.0031767563156406	  0.0060007573432360	  0.0015035346147641
  0.0033211853153660	  0.0092751827493102	  0.0016682595954381
  0.0034026897411839	  0.0131502927204238	  0.0018116675785982
  0.0034014919444999	  0.0176064888908482	  0.0019598559625952
  0.0033300143787741	  0.0226586174755133	  0.0020760683278957
  0.0031785302490084	  0.0282834865980442	  0.0021991704185754
  0.0029502990819352	  0.0344947039722292	  0.0022798391772091
  0.0026392033432965	  0.0412650964627916	  0.0023693351320387
  0.0022233164754214	  0.0485866981578325	  0.0023925566613194
  0.0016549722688949	  0.0564604165961684	  0.0023769834510439
  0.0008795427313384	  0.0651548722309306	  0.0022377009182439
 -0.0001285733855342	  0.0745247884431526	  0.0020140451247994
 -0.0013280959809526	  0.0844385943794243	  0.0017048302551359
 -0.0024925420732954	  0.0948337586912955	  0.0014317612063956
  0.0000000000000000	  0.0000000000000000	  0.0000000000000000